LAMMPS data file

6 atoms
3 atom types

-0.65 0.65 xlo xhi #box dimensions, modify to control total density
-0.65 0.65 ylo yhi
-0.65 0.65 zlo zhi

Masses

1 0.4 # Core
2 0.2 # Vertex interactors
3 0.5 # Isotropic Paticles


Atoms

1 1 1 0 0 0 0      # Core
2 1 2 0 0.375 0 0
3 1 2 0 -0.375 0 0
4 1 2 0 0 0.375 0
5 1 2 0 0 -0.375 0
6 2 3 0 0.49 0.49 0.49 #IP
