3072
Timestep: 810000
1	0.903242	0.907792	2.6315
2	1.21042	0.720921	2.73803
2	0.596067	1.09466	2.52498
2	0.988359	0.842838	2.27211
2	0.818126	0.972747	2.99089
3	7.12361	0.504104	7.89857
1	1.92551	5.84068	9.04486
2	1.77568	5.95504	8.72068
2	2.07535	5.72631	9.36904
2	2.14185	5.59722	8.85898
2	1.70917	6.08413	9.23074
3	1.87742	-0.460177	-0.543968
1	2.48487	5.07119	6.55137
2	2.85027	5.15044	6.58016
2	2.11947	4.99195	6.52257
2	2.44377	5.12675	6.91995
2	2.52596	5.01564	6.18279
3	2.82359	1.85285	1.57954
1	4.1258	-0.491832	0.277145
2	4.1064	9.75839	0.620386
2	4.14519	-0.342053	-0.066097
2	4.38551	9.65516	0.181417
2	3.86609	-0.238828	0.372872
3	2.5116	1.64175	2.67684
1	1.99879	9.69641	3.62344
2	2.08686	-0.362345	3.75158
2	1.91072	9.35517	3.49529
2	1.73819	9.66318	3.89104
2	2.25938	9.72965	3.35583
3	6.43644	9.53917	2.69704
1	4.918	1.77458	9.47062
2	4.76355	1.44813	9.36965
2	5.07246	2.10104	9.5716
2	5.25343	1.6509	9.35742
2	4.58257	1.89827	9.58382
3	-0.296402	2.54699	-0.0219923
1	4.32924	0.764936	0.197917
2	4.69134	0.855195	0.234821
2	3.96714	0.674677	0.161014
2	4.42377	0.474849	-0.0201165
2	4.23472	1.05502	0.415951
3	-0.426175	8.15799	-0.597855
1	9.34727	3.3758	-0.524354
2	9.5861	3.34606	-0.236777
2	9.10844	3.40554	9.58807
2	9.09027	3.18313	-0.330838
2	9.60428	3.56848	9.68213
3	3.92167	-0.416935	1.56615
1	0.632035	1.77937	1.14311
2	0.83488	1.72324	1.45348
2	0.429191	1.83549	0.832744
2	0.330756	1.6357	1.31404
2	0.933315	1.92303	0.972188
3	4.39206	8.4776	0.412414
1	2.01321	0.0660084	-0.340422
2	2.11386	0.393362	-0.187663
2	1.91256	-0.261345	-0.49318
2	2.08535	-0.107588	-0.0159452
2	1.94107	0.239605	9.7351
3	2.93277	0.064826	1.83682
1	3.19558	0.658106	0.195099
2	3.56999	0.637356	0.197708
2	2.82116	0.678856	0.19249
2	3.21581	1.00566	0.0557325
2	3.17534	0.310554	0.334465
3	1.70271	5.99444	8.53442
1	9.39005	1.82188	1.74832
2	9.22346	2.06966	1.52144
2	9.55663	1.57409	1.97521
2	9.71854	1.88888	1.58032
2	9.06155	1.75487	1.91633
3	8.8857	1.71794	1.98509
1	3.838	-0.255231	1.01551
2	4.01938	-0.555086	0.882043
2	3.65662	0.0446247	1.14897
2	3.76784	-0.141689	0.665062
2	3.90816	-0.368772	1.36595
3	2.67297	1.78626	-0.0734426
1	3.53199	1.23166	7.95205
2	3.55248	1.34427	7.59495
2	3.51149	1.11904	8.30916
2	3.59553	0.878158	7.84423
2	3.46845	1.58515	8.05988
3	0.747752	0.99404	3.18585
1	8.98473	2.26033	2.17883
2	8.67942	2.38527	2.00051
2	9.29005	2.13539	2.35715
2	8.91255	1.9125	2.0587
2	9.05691	2.60816	2.29895
3	5.52832	5.57208	4.19856
1	1.48518	-0.107126	9.63992
2	1.73255	-0.341794	9.79601
2	1.23781	0.127542	9.48382
2	1.75774	0.144905	9.58687
2	1.21261	-0.359156	9.69296
3	-0.0508207	0.984451	1.9284
1	1.70579	0.839141	0.325617
2	1.42233	0.608695	0.410306
2	1.98924	1.06959	0.240928
2	1.94623	0.604728	0.492537
2	1.46534	1.07355	0.158697
3	-0.570914	8.30328	2.92899
1	1.22884	1.55608	0.476683
2	1.41078	1.80424	0.26234
2	1.04691	1.30793	0.691027
2	1.28029	1.29239	0.215065
2	1.17739	1.81977	0.738301
3	7.39017	5.37175	5.70049
1	4.61529	0.711272	9.18705
2	4.3916	0.795988	8.89824
2	4.83898	0.626555	9.47586
2	4.58712	0.347119	9.10205
2	4.64346	1.07542	9.27205
3	3.58713	0.94911	0.926472
1	4.73464	2.25612	-0.380746
2	4.4514	2.25984	-0.135014
2	5.01788	2.2524	9.77352
2	4.51904	2.07238	9.77353
2	4.95024	2.43986	-0.135018
3	7.47983	8.68796	9.26199
1	3.74189	1.20181	0.195329
2	3.40977	1.18359	0.0221546
2	4.07401	1.22002	0.368504
2	3.76427	0.827492	0.191778
2	3.7195	1.57612	0.198881
3	9.18866	2.38173	0.655543
1	7.29507	0.993496	8.14708
2	7.17868	0.678954	7.97933
2	7.41147	1.30804	8.31483
2	7.61889	0.973999	7.95896
2	6.97126	1.01299	8.3352
3	7.02716	6.69389	7.68985
1	1.36547	3.74463	7.71293
2	1.54666	3.72138	8.04042
2	1.18428	3.76787	7.38543
2	1.12465	3.48096	7.82744
2	1.60628	4.00829	7.59841
3	4.8836	0.891052	0.312513
1	8.21485	7.82477	8.44145
2	8.09096	7.92781	8.10284
2	8.33873	7.72174	8.78007
2	8.43626	7.56744	8.28215
2	7.99343	8.08211	8.60076
3	8.45266	4.02397	9.3054
1	3.20847	1.72291	-0.264399
2	3.2192	2.07993	-0.378622
2	3.19775	1.36589	-0.150177
2	3.5596	1.67334	-0.386373
2	2.85735	1.77248	-0.142426
3	2.38565	4.94914	9.3747
1	3.75336	2.2651	-0.136519
2	3.3977	2.26519	-0.255404
2	4.10901	2.26501	-0.0176341
2	3.81416	2.58748	-0.318168
2	3.69255	1.94271	0.0451291
3	9.44933	6.87618	3.0649
1	3.27779	2.85405	-0.247233
2	3.64068	2.8099	-0.330823
2	2.9149	2.8982	-0.163642
2	3.21531	2.4932	-0.327911
2	3.34027	3.2149	-0.166554
3	7.6302	0.435204	3.00239
1	4.60564	6.63115	-0.410369
2	4.62804	6.57301	9.61984
2	4.58323	6.68929	-0.040581
2	4.90043	6.86219	-0.428829
2	4.31084	6.4001	-0.391908
3	5.92141	7.00983	7.69718
1	7.70018	0.462707	2.42313
2	7.77473	0.487387	2.05644
2	7.62564	0.438026	2.78982
2	7.38334	0.277439	2.34625
2	8.01703	0.647974	2.50001
3	3.48048	9.39932	4.11086
1	9.65132	2.48213	0.323018
2	9.35549	2.42754	0.546917
2	-0.45285	2.53671	0.0991199
2	9.43378	2.66851	0.081022
2	-0.531137	2.29574	0.565015
3	1.83564	3.36405	1.32712
1	9.61376	6.95594	-0.219681
2	9.52716	6.59954	-0.297837
2	9.70037	7.31233	-0.141525
2	9.64182	6.86934	0.144104
2	9.58571	7.04253	-0.583466
3	5.53842	6.68597	9.32633
1	0.218289	1.29852	0.84258
2	0.268898	1.17286	0.492903
2	0.16768	1.42417	1.19226
2	0.16915	0.946448	0.961983
2	0.267428	1.65059	0.723177
3	9.03157	3.40333	5.96457
1	1.10029	3.64123	-0.622127
2	1.2314	3.99253	-0.61716
2	0.969181	3.28993	-0.627094
2	0.760912	3.76924	-0.717304
2	1.43967	3.51322	-0.52695
3	2.69248	0.523948	2.48723
1	0.784626	7.31898	2.61369
2	1.13676	7.19613	2.57453
2	0.432491	7.44183	2.65285
2	0.719769	7.05178	2.8687
2	0.849483	7.58617	2.35869
3	2.55822	5.08672	8.58555
1	2.22613	5.87361	8.31566
2	2.55839	5.7764	8.17151
2	1.89387	5.97082	8.45981
2	2.1863	6.1337	8.04846
2	2.26596	5.61353	8.58285
3	0.575687	5.15501	7.68998
1	1.10623	8.50711	7.66019
2	0.919715	8.7835	7.83179
2	1.29275	8.23072	7.48859
2	1.37464	8.52608	7.92139
2	0.837826	8.48814	7.399
3	3.37733	3.41016	-0.135705
1	5.95681	7.04612	8.27433
2	5.9371	7.00561	7.90205
2	5.97653	7.08663	8.64662
2	6.31941	6.95089	8.2655
2	5.59421	7.14135	8.28317
3	6.61252	7.10643	9.40345
1	6.22378	8.77033	8.93569
2	6.29037	8.5471	9.22955
2	6.15718	8.99357	8.64182
2	6.38073	8.51721	8.70783
2	6.06682	9.02346	9.16354
3	9.09346	2.20225	1.4274
1	9.49103	8.89755	8.80982
2	-0.66624	9.15572	8.93251
2	9.24829	8.63937	8.68713
2	9.27805	9.16825	8.66155
2	9.704	8.62684	8.95809
3	7.28964	7.74337	8.09775
1	2.8674	4.93853	9.05749
2	2.67014	5.04091	8.75544
2	3.06466	4.83614	9.35953
2	3.1794	4.92683	8.84977
2	2.55541	4.95022	9.26521
3	7.73934	8.5034	6.93506
1	9.39487	7.42364	6.44208
2	9.23819	7.58651	6.14283
2	9.55155	7.26077	6.74133
2	9.68517	7.31506	6.23099
2	9.10456	7.53221	6.65317
3	7.4429	9.44939	7.51482
1	1.81039	8.59981	3.29459
2	1.63041	8.53096	3.61629
2	1.99038	8.66866	2.97289
2	1.76573	8.24162	3.19295
2	1.85505	8.958	3.39624
3	4.8274	8.44431	3.06375
1	4.2498	8.3107	9.15841
2	4.07848	8.23769	9.4839
2	4.42112	8.3837	8.83292
2	4.52749	8.07675	9.2521
2	3.9721	8.54464	9.06471
3	4.49478	8.42165	8.64844
1	1.7151	3.10452	1.83109
2	1.65441	2.92511	2.15474
2	1.77579	3.28394	1.50744
2	1.40292	3.30546	1.88394
2	2.02728	2.90359	1.77824
3	5.22702	6.6095	0.643009
1	7.93775	0.574651	1.30467
2	7.61711	0.412077	1.19796
2	8.25838	0.737225	1.41138
2	8.0281	0.632318	0.945313
2	7.84739	0.516984	1.66402
3	4.10887	9.44243	2.13638
1	8.95606	8.66033	4.68104
2	8.8796	8.30327	4.5957
2	9.03252	9.0174	4.76638
2	9.23875	8.65869	4.43464
2	8.67337	8.66198	4.92743
3	6.56108	8.44173	0.139523
1	9.46735	8.07125	8.88563
2	9.24555	8.32376	8.71929
2	9.68915	7.81874	9.05197
2	9.24733	7.79496	8.7596
2	9.68737	8.34753	9.01166
3	3.24667	7.03714	-0.356658
1	-0.00672266	7.60093	2.13515
2	0.316234	7.54757	1.95219
2	-0.329679	7.6543	2.31812
2	0.17003	7.55013	2.46196
2	-0.183476	7.65173	1.80834
3	0.816288	6.88516	5.15856
1	2.26938	0.827434	9.49072
2	2.39189	0.840325	9.13653
2	2.14686	0.814542	-0.55509
2	1.98928	1.06057	9.40232
2	2.54947	0.594293	9.57912
3	8.76309	-0.627194	1.61228
1	0.14208	1.40025	2.94233
2	0.342959	1.26959	2.65388
2	-0.0587996	1.53091	3.23077
2	0.258972	1.74831	2.86607
2	0.0251879	1.05219	3.01859
3	2.36294	7.22395	5.02772
1	4.32064	7.38338	0.00270007
2	4.09642	7.0834	-0.0163338
2	4.54487	7.68336	0.0217339
2	4.30328	7.42001	-0.370102
2	4.33801	7.34675	0.375502
3	0.373126	2.38263	2.99312
1	3.29563	0.567749	9.65135
2	3.6646	0.632466	9.66864
2	2.92667	0.503033	9.63406
2	3.26119	0.834061	9.38959
2	3.33008	0.301438	-0.486891
3	3.89152	0.834612	3.80058
1	4.5466	7.97325	3.24278
2	4.74057	8.26823	3.11632
2	4.35263	7.67827	3.36923
2	4.58381	7.80583	2.90929
2	4.50939	8.14068	3.57626
3	7.47069	0.279298	1.12687
1	8.1028	8.59149	-0.150014
2	8.12213	8.49019	-0.510555
2	8.08346	8.69279	0.210527
2	8.38896	8.82838	-0.201222
2	7.81663	8.35461	-0.0988057
3	4.2591	0.813771	8.74804
1	5.12888	9.34215	0.233998
2	4.79252	9.47466	0.33364
2	5.46525	9.20965	0.134355
2	5.2946	9.60436	0.444736
2	4.96316	9.07995	0.0232602
3	3.45699	7.68156	1.52203
1	8.70524	7.25798	8.69963
2	8.97785	7.51544	8.70465
2	8.43263	7.00053	8.69461
2	8.82287	7.12697	9.03072
2	8.58761	7.38899	8.36853
3	1.32463	1.17745	0.054218
1	9.44445	3.77193	9.29903
2	9.63382	3.46343	9.20107
2	9.25509	4.08043	9.39699
2	9.14467	3.56198	9.38071
2	-0.655758	3.98188	9.21735
3	8.2156	0.0113697	0.819192
1	0.854046	-0.229155	9.2556
2	1.00374	-0.406913	9.54992
2	0.704358	-0.051398	8.96129
2	1.02615	0.08747	9.3593
2	0.681943	-0.545781	9.1519
3	3.44961	8.41188	8.16413
1	2.48999	2.30915	1.66865
2	2.69297	2.00157	1.59922
2	2.287	2.61672	1.73809
2	2.64656	2.33579	2.00836
2	2.33341	2.2825	1.32895
3	5.24748	9.46602	3.43501
1	4.09497	9.0928	8.74181
2	3.89959	8.80433	8.88051
2	4.29035	9.38126	8.60311
2	4.03689	8.96495	8.39409
2	4.15305	9.22065	9.08952
3	5.24898	0.216477	3.29893
1	3.75842	0.892426	8.99916
2	3.91041	0.794024	9.32755
2	3.60643	0.990828	8.67077
2	3.42684	0.941427	9.16731
2	4.09001	0.843425	8.83101
3	4.10631	9.67824	0.80018
1	4.57209	7.77902	2.17016
2	4.56275	7.71148	2.53891
2	4.58143	7.84655	1.80141
2	4.19851	7.74999	2.15538
2	4.94567	7.80804	2.18494
3	4.49099	3.11337	-0.119348
1	6.91036	8.61792	9.32251
2	6.96756	8.53711	9.6842
2	6.85316	8.69873	8.96082
2	7.27568	8.69184	9.28125
2	6.54504	8.54401	9.36377
3	3.74968	-0.0895593	0.464978
1	1.44808	9.59977	-0.357788
2	1.20484	-0.612648	-0.572904
2	1.69131	9.41218	-0.142672
2	1.16848	9.38638	-0.227728
2	1.72767	-0.586841	-0.487848
3	-0.422258	2.18832	0.698419
1	5.75656	7.77076	4.52349
2	5.87209	7.74816	4.87953
2	5.64102	7.79335	4.16744
2	5.61205	7.42562	4.54847
2	5.90106	8.11589	4.4985
3	6.47968	6.82633	7.1361
1	2.98809	0.930361	8.7214
2	2.65231	0.866841	8.87581
2	3.32388	0.993881	8.567
2	2.83598	0.903819	8.37967
2	3.14021	0.956903	9.06313
3	2.15002	2.27606	1.19667
1	2.56889	0.237972	0.532067
2	2.59091	0.515889	0.281264
2	2.54687	-0.0399443	0.782871
2	2.92006	0.135594	0.449457
2	2.21772	0.340351	0.614678
3	4.86152	5.48188	5.53408
1	7.38896	1.89672	8.02478
2	7.19175	2.06788	8.29392
2	7.58617	1.72557	7.75563
2	7.45082	1.60682	8.25446
2	7.32709	2.18662	7.79509
3	1.72711	8.96009	8.6932
1	2.61889	2.13465	2.9752
2	2.28011	2.26351	2.87906
2	2.95768	2.00578	3.07135
2	2.67316	2.43739	3.18975
2	2.56462	1.83191	2.76065
3	3.75208	1.61512	-0.461045
1	8.20572	9.61394	1.67517
2	7.85367	9.50031	1.73661
2	8.55777	-0.672437	1.61373
2	8.27964	9.58302	2.04151
2	8.13181	9.64485	1.30883
3	2.70649	1.36534	0.651713
1	8.48662	-0.320868	1.20333
2	8.22547	-0.586334	1.1591
2	8.74776	-0.0554027	1.24757
2	8.32145	-0.114118	0.937626
2	8.65178	-0.527619	1.46904
3	5.34058	0.0950034	4.44164
1	4.92593	0.681662	3.42716
2	5.13823	0.387288	3.33283
2	4.71363	0.976035	3.52149
2	4.77153	0.679823	3.08542
2	5.08033	0.6835	3.76889
3	7.67147	9.41933	1.77092
1	-0.578043	0.91646	2.90478
2	-0.224182	0.863265	3.01694
2	9.4681	0.969654	2.79263
2	-0.638943	1.1373	3.20168
2	-0.517143	0.695619	2.60789
3	1.63774	4.70984	9.1953
1	0.900071	2.14553	2.99059
2	0.836424	2.00448	3.33218
2	0.963718	2.28658	2.64901
2	0.557828	2.29881	2.99011
2	1.24231	1.99225	2.99107
3	2.02831	0.448083	0.620459
1	1.97531	1.76582	2.84139
2	1.90424	1.39857	2.86786
2	2.04639	2.13307	2.81492
2	2.33414	1.69068	2.76248
2	1.61649	1.84095	2.9203
3	0.447038	2.20422	-0.0431822
1	2.36079	0.907084	0.638733
2	2.18543	1.04024	0.942284
2	2.53615	0.773927	0.335182
2	2.13652	0.606542	0.641016
2	2.58505	1.20763	0.636451
3	2.72834	0.497288	9.62572
1	2.54582	0.0149476	2.26436
2	2.7993	0.0423239	1.98936
2	2.29233	-0.0124287	2.53935
2	2.44366	-0.32249	2.13659
2	2.64798	0.352385	2.39212
3	1.65243	2.80932	2.31854
1	0.248878	0.932959	1.43155
2	0.0412656	0.956027	1.74298
2	0.456489	0.909891	1.12012
2	0.277864	0.562022	1.47835
2	0.219892	1.3039	1.38475
3	3.86729	7.693	4.972
1	5.3459	0.159771	3.86848
2	5.37748	0.110265	4.23885
2	5.31431	0.209277	3.49811
2	5.17818	0.490043	3.92693
2	5.51361	-0.170501	3.81003
3	9.41037	0.327525	1.83337
1	4.91544	5.07845	5.93963
2	5.27993	5.15598	5.9816
2	4.55095	5.00092	5.89765
2	4.94567	4.80084	6.18992
2	4.88521	5.35606	5.68933
3	4.02218	3.29955	0.445175
1	1.95775	5.2902	3.69603
2	2.14205	5.47688	3.96401
2	1.77346	5.10352	3.42806
2	1.63699	5.33578	3.88487
2	2.27851	5.24462	3.50719
3	3.83203	2.77628	-0.370285
1	0.38481	1.64959	0.122268
2	0.328637	1.77876	0.46981
2	0.440983	1.52042	-0.225274
2	0.342149	1.29817	0.245984
2	0.427471	2.00101	-0.00144796
3	1.27815	5.53352	4.75605
1	2.23413	2.7673	-0.41551
2	1.92606	2.63194	-0.581021
2	2.5422	2.90266	-0.249998
2	2.19179	2.52138	-0.135586
2	2.27647	3.01322	9.70457
3	6.51107	5.92905	5.20867
1	3.19175	1.56378	0.415132
2	3.21515	1.81686	0.690866
2	3.16836	1.3107	0.139399
2	2.87436	1.43079	0.564125
2	3.50915	1.69676	0.26614
3	7.49735	1.47297	8.40358
1	1.45709	3.1868	8.19257
2	1.33157	2.83347	8.19758
2	1.58261	3.54013	8.18757
2	1.75168	3.0851	8.40114
2	1.1625	3.2885	7.98401
3	9.47194	2.12099	2.45692
1	9.23781	3.17044	8.96718
2	9.57616	3.28382	9.08243
2	8.89945	3.05706	8.85192
2	9.3929	3.01828	8.66154
2	9.08271	3.3226	9.27282
3	5.71052	6.90696	0.040546
1	8.30605	0.738031	1.98656
2	8.64498	0.870386	2.07727
2	7.96711	0.605676	1.89585
2	8.39103	0.769768	1.6227
2	8.22106	0.706294	2.35042
3	6.79333	6.52875	-0.0125921
1	9.39348	1.56686	2.58209
2	9.33361	1.20519	2.66109
2	9.45334	1.92852	2.50309
2	9.21314	1.66523	2.89582
2	9.57381	1.46848	2.26836
3	8.6035	1.00093	3.22007
1	2.17171	2.55015	2.28187
2	1.83949	2.71835	2.32615
2	2.50394	2.38195	2.23759
2	2.14319	2.40329	2.62573
2	2.20023	2.69701	1.938
3	0.560648	1.30898	3.94444
1	1.77171	5.5587	4.44649
2	1.46104	5.54909	4.6563
2	2.08237	5.5683	4.23668
2	1.57546	5.43851	4.1504
2	1.96795	5.67888	4.74257
3	8.87065	0.103659	1.27935
1	5.03843	3.11455	0.0617304
2	4.6827	3.11238	-0.05692
2	5.39415	3.11671	0.180381
2	5.0205	3.48616	0.108701
2	5.05635	2.74293	0.0147602
3	9.47874	5.58008	6.77614
1	4.99356	8.08551	2.63
2	5.24948	8.34934	2.55571
2	4.73763	7.82168	2.7043
2	4.87103	8.28656	2.92188
2	5.11609	7.88446	2.33813
3	4.34674	4.98076	5.90155
1	3.52123	3.60174	0.39537
2	3.43789	3.47041	0.0541484
2	3.60457	3.73306	0.736591
2	3.19724	3.79045	0.401869
2	3.84522	3.41302	0.388871
3	1.37758	5.6879	7.28881
1	2.87067	3.43598	0.129945
2	3.19627	3.41885	-0.0553043
2	2.54508	3.45311	0.315195
2	2.75822	3.12039	-0.0385305
2	2.98313	3.75157	0.298421
3	-0.149768	7.44772	5.46461
1	2.1046	1.82029	0.0518476
2	2.0697	1.44978	0.0979777
2	2.1395	2.1908	0.00571755
2	2.47103	1.77741	-0.015317
2	1.73816	1.86317	0.119012
3	9.3069	2.77435	-0.0267241
1	-0.177316	2.53362	2.99015
2	-0.206907	2.45612	3.35586
2	-0.147725	2.61111	2.62444
2	-0.541518	2.62232	2.97948
2	0.186886	2.44491	3.00082
3	6.97187	8.11609	7.03841
1	5.31659	4.31464	4.4029
2	5.53154	4.06746	4.22037
2	5.10163	4.56182	4.58544
2	5.48233	4.59549	4.21777
2	5.15084	4.03378	4.58804
3	0.253584	7.53836	2.64007
1	0.435242	2.55171	2.44874
2	0.798381	2.45814	2.44812
2	0.0721032	2.64527	2.44936
2	0.40785	2.44303	2.8066
2	0.462635	2.66038	2.09088
3	1.85878	9.1647	3.43163
1	0.800209	7.49929	6.50192
2	0.659227	7.17825	6.36894
2	0.941191	7.82033	6.63491
2	1.13194	7.33222	6.55357
2	0.468477	7.66636	6.45028
3	2.87424	7.65028	6.96481
1	3.44962	7.90746	2.05086
2	3.4534	7.7662	1.7035
2	3.44584	8.04871	2.39822
2	3.08681	7.99387	2.01177
2	3.81243	7.82104	2.08995
3	1.84719	7.69972	2.34049
1	-0.423134	6.85729	3.2905
2	-0.36777	7.21801	3.20421
2	-0.478498	6.49658	3.37678
2	-0.0856663	6.8445	3.45352
2	9.6394	6.87009	3.12747
3	6.03765	8.69056	3.75373
1	2.515	4.00129	0.599792
2	2.4384	3.64553	0.509265
2	2.5916	4.35704	0.690319
2	2.17295	4.03689	0.749314
2	2.85706	3.96568	0.45027
3	8.0875	9.66582	1.12183
1	-0.481686	6.12028	3.96873
2	-0.10847	6.08658	3.95463
2	9.5451	6.15398	3.98284
2	-0.484978	6.23344	3.61123
2	-0.478394	6.00712	4.32624
3	8.55519	7.42248	8.17516
1	4.78126	6.97239	0.646197
2	4.87471	7.12168	0.977259
2	4.68781	6.82309	0.315135
2	4.49312	7.21095	0.619951
2	5.0694	6.73382	0.672442
3	2.08628	5.69297	4.9147
1	-0.036587	9.20709	5.07086
2	-0.154461	9.56111	5.0335
2	0.0812871	8.85306	5.10822
2	-0.283722	9.15404	5.34787
2	0.210548	9.26013	4.79385
3	6.6445	8.66291	6.6348
1	1.34367	7.63308	7.02923
2	1.14551	7.85236	6.79842
2	1.54183	7.41379	7.26003
2	1.32855	7.35503	6.77805
2	1.3588	7.91112	7.2804
3	1.77564	8.05643	3.1023
1	5.0239	7.48289	1.67155
2	5.10397	7.66859	1.98735
2	4.94384	7.29718	1.35575
2	5.30347	7.24301	1.74172
2	4.74434	7.72277	1.60137
3	3.70805	7.37211	8.14263
1	0.00754036	2.19928	0.327005
2	-0.173667	2.43778	0.101375
2	0.188748	1.96079	0.552635
2	0.301809	2.20299	0.0945889
2	-0.286728	2.19558	0.559421
3	3.99402	7.75904	2.13788
1	5.16019	6.79357	0.101633
2	4.79023	6.74535	0.139487
2	5.53015	6.84178	0.0637789
2	5.11032	6.89568	-0.255732
2	5.21006	6.69145	0.458998
3	5.16018	2.26957	9.63092
1	2.97685	7.48866	1.78161
2	2.67516	7.37465	1.97295
2	3.27854	7.60267	1.59027
2	2.91421	7.84124	1.89292
2	3.03949	7.13608	1.6703
3	6.33996	6.90483	0.547306
1	8.08293	9.21673	0.763315
2	7.77276	9.09108	0.932539
2	8.39309	9.34237	0.59409
2	8.09668	9.50511	1.00263
2	8.06917	8.92835	0.523995
3	6.1872	9.68578	6.89798
1	-0.170209	7.90742	2.79776
2	0.0625632	8.03603	3.06214
2	-0.402981	7.77881	2.53337
2	-0.428101	8.15867	2.90259
2	0.0876832	7.65617	2.69292
3	4.69192	0.0074573	3.62608
1	2.40809	8.84798	2.32918
2	2.63818	8.89607	2.037
2	2.17799	8.79989	2.62136
2	2.5603	9.14616	2.49813
2	2.25587	8.5498	2.16023
3	9.21678	9.30645	5.65292
1	6.40162	9.16592	6.75333
2	6.27996	9.02442	7.07861
2	6.52328	9.30741	6.42806
2	6.2571	9.49973	6.84449
2	6.54615	8.83211	6.66218
3	0.577632	3.8117	-0.788006
1	2.5887	8.42918	1.674
2	2.39791	8.69468	1.49033
2	2.77949	8.16369	1.85767
2	2.86087	8.44672	1.41662
2	2.31653	8.41165	1.93138
3	4.58378	7.846	1.58737
1	1.94926	8.21647	2.57204
2	2.03527	8.55064	2.71887
2	1.86326	7.88229	2.42522
2	2.08366	8.32772	2.2401
2	1.81487	8.10521	2.90399
3	3.85646	0.343186	3.17258
1	6.12383	8.81052	0.0829614
2	6.27264	9.04348	0.336358
2	5.97503	8.57755	-0.170435
2	5.81971	9.0288	0.0608718
2	6.42795	8.59223	0.105051
3	9.28024	1.02405	2.74271
1	-0.103024	8.39289	0.619851
2	-0.0950236	8.4536	0.249884
2	-0.111025	8.33219	0.989818
2	-0.232283	8.04598	0.560132
2	0.0262345	8.73981	0.67957
3	4.02958	8.79291	4.64686
1	6.30958	8.65581	6.15823
2	6.08457	8.6553	5.85824
2	6.53459	8.65631	6.45823
2	6.18559	8.31449	6.25181
2	6.43357	8.99712	6.06466
3	5.20345	8.72437	3.74022
1	5.63931	9.07802	3.58081
2	5.91475	9.30657	3.46891
2	5.36386	8.84947	3.6927
2	5.89354	8.82372	3.68721
2	5.38507	9.33232	3.47441
3	0.0603435	6.64971	5.38699
1	7.17846	8.61579	6.83677
2	7.07771	8.26993	6.94097
2	7.27921	8.96165	6.73258
2	6.82271	8.69207	6.74595
2	7.53421	8.53952	6.9276
3	4.61619	-0.556129	5.04763
1	1.60974	8.81808	6.05501
2	1.65406	8.46824	6.18256
2	1.56541	9.16793	5.92745
2	1.35428	8.88297	6.32176
2	1.8652	8.75319	5.78826
3	2.50534	-0.247893	9.37109
1	1.68436	0.109899	0.293788
2	1.91867	0.302797	0.51405
2	1.45006	-0.0829998	0.0735264
2	1.4088	0.350521	0.376194
2	1.95993	-0.130724	0.211382
3	2.26442	8.38058	4.91548
1	3.48928	0.70636	1.46382
2	3.46187	1.04358	1.62556
2	3.51669	0.369144	1.30208
2	3.11942	0.705974	1.40194
2	3.85914	0.706746	1.52569
3	4.6334	-0.468051	2.46035
1	7.64957	-0.0971555	0.72509
2	7.73965	-0.361274	0.474588
2	7.55948	0.166963	0.975591
2	7.28559	-0.166576	0.667389
2	8.01354	-0.0277349	0.782791
3	4.46806	0.338857	-0.167927
1	8.7867	0.11168	0.714388
2	8.42312	0.0395032	0.771209
2	9.15027	0.183857	0.657567
2	8.8425	0.122384	1.08506
2	8.73089	0.100976	0.343718
3	0.445617	1.22596	2.48107
1	3.07195	-0.239083	-0.0214128
2	3.02667	-0.468703	-0.314414
2	3.11723	-0.00946421	0.271588
2	2.88409	-0.479806	0.196269
2	3.25981	0.00163907	-0.239095
3	5.99075	8.29045	4.44733
1	9.67259	7.27378	2.72293
2	-0.478435	7.35488	2.99137
2	9.42362	7.19268	2.45449
2	9.52509	7.00635	2.94052
2	-0.579911	7.54121	2.50533
3	2.89552	8.03011	1.94827
1	8.89706	0.527661	1.6639
2	8.89578	0.274831	1.38695
2	8.89834	0.780491	1.94085
2	8.58865	0.685918	1.52085
2	9.20547	0.369404	1.80695
3	4.86449	9.62517	7.90548
1	3.51534	9.39328	6.65935
2	3.80173	9.17247	6.75858
2	3.22894	9.61408	6.56013
2	3.34505	9.10026	6.49883
2	3.68563	9.68629	6.81988
3	3.12251	-0.622769	1.66128
1	2.3363	0.00705332	4.33967
2	1.99102	0.0514316	4.47911
2	2.68157	-0.037325	4.20024
2	2.48201	0.143904	4.65695
2	2.19058	-0.129798	4.0224
3	7.8726	8.22613	8.69087
1	4.39882	-0.327942	4.00554
2	4.21243	-0.534732	4.25678
2	4.58521	-0.121152	3.7543
2	4.70418	-0.339077	4.22291
2	4.09345	-0.316807	3.78816
3	4.21054	1.22778	0.528347
1	3.98764	0.153484	1.57458
2	3.67811	0.180867	1.36466
2	4.29717	0.126102	1.7845
2	4.02074	0.52702	1.5745
2	3.95454	-0.220052	1.57466
3	6.42322	-0.163088	4.13783
1	6.67732	-0.577869	7.93756
2	6.76044	-0.505724	7.57907
2	6.59419	-0.650014	8.29604
2	6.71251	9.45463	7.87176
2	6.64212	-0.210368	8.00335
3	7.36892	9.15455	6.72565
1	0.361865	1.39441	1.93289
2	0.268029	1.48464	1.58122
2	0.455701	1.30418	2.28457
2	0.617398	1.66886	1.93513
2	0.106333	1.11996	1.93066
3	8.29988	9.56841	2.24019
1	2.86903	9.55383	2.12869
2	2.7083	9.40146	2.4313
2	3.02977	9.70621	1.82609
2	2.56639	-0.631038	2.07627
2	3.17168	9.33871	2.18112
3	9.66633	2.6828	2.97888
1	9.64549	2.34743	4.06349
2	9.45971	2.25858	3.75009
2	-0.568732	2.43627	4.37689
2	-0.571389	2.02057	4.0476
2	9.46236	2.67429	4.07938
3	0.910484	5.74873	6.61515
1	4.23806	0.745585	3.34828
2	4.47311	1.0121	3.46807
2	4.00302	0.47907	3.2285
2	4.01674	0.807591	3.64459
2	4.45938	0.683579	3.05198
3	4.75452	-0.152144	8.37323
1	3.25827	6.77149	5.60856
2	3.25223	6.4358	5.77559
2	3.26431	7.10718	5.44152
2	2.89452	6.7362	5.52448
2	3.62201	6.80678	5.69263
3	2.66074	1.1734	2.01524
1	6.58928	9.59574	3.24672
2	6.50238	9.5851	2.88208
2	6.67618	9.60638	3.61135
2	6.93992	9.69671	3.16021
2	6.23865	9.49476	3.33323
3	7.79693	0.503775	1.8562
1	3.73848	9.46145	2.58243
2	4.0092	9.58977	2.80798
2	3.46776	9.33312	2.35689
2	3.97722	9.46603	2.29328
2	3.49975	9.45686	2.87159
3	5.47852	5.18998	5.99838
1	9.35829	0.694169	2.28135
2	9.40135	0.460421	1.99129
2	9.31523	0.927916	2.57141
2	9.02905	0.80689	2.14163
2	9.68753	0.581447	2.42107
3	4.65231	0.26557	4.91228
1	9.16462	1.14548	3.30333
2	8.80297	1.06316	3.24802
2	9.52627	1.2278	3.35863
2	9.10891	1.48713	3.1591
2	9.22033	0.803837	3.44755
3	3.76413	0.621132	0.185215
1	8.11302	0.723828	3.11825
2	8.05024	0.693596	3.48672
2	8.17579	0.754061	2.74978
2	8.42612	0.918216	3.18755
2	7.79991	0.529441	3.04896
3	4.66965	1.26757	9.328
1	0.275242	1.04038	3.52221
2	0.577098	1.03718	3.29973
2	-0.0266137	1.04359	3.74469
2	0.0697125	0.89272	3.24549
2	0.480772	1.18805	3.79894
3	-0.526563	1.92473	1.44866
1	6.96564	4.98781	5.6272
2	7.20963	4.7559	5.46194
2	6.72164	5.21971	5.79247
2	6.68787	4.74603	5.55639
2	7.2434	5.22959	5.69801
3	0.986802	2.39011	2.48254
1	2.28583	2.9247	0.252835
2	2.35408	3.27048	0.38089
2	2.21757	2.57891	0.124779
2	2.57708	2.954	0.0184513
2	1.99457	2.89539	0.487218
3	1.08157	3.77239	7.2134
1	3.20885	3.84223	1.3245
2	3.02243	4.07996	1.10233
2	3.39527	3.60451	1.54667
2	2.9324	3.86155	1.57714
2	3.4853	3.82291	1.07186
3	2.20024	2.79979	1.75302
1	2.03111	2.82839	1.20982
2	2.15246	2.80772	1.56404
2	1.90975	2.84907	0.855603
2	1.92819	3.18461	1.26587
2	2.13403	2.47218	1.15377
3	3.62607	3.81141	0.920155
1	8.58541	3.53535	9.03529
2	8.51385	3.86154	9.20589
2	8.65696	3.20916	8.86469
2	8.3145	3.60635	8.7859
2	8.85631	3.46435	9.28468
3	8.1895	0.739196	2.54864
1	7.87847	9.27824	7.859
2	7.99282	9.6281	7.93074
2	7.76412	8.92838	7.78725
2	7.60457	9.41249	7.64087
2	8.15236	9.14398	8.07713
3	0.285731	4.6037	7.20698
1	1.58047	5.93217	5.04177
2	1.41777	5.6806	4.81622
2	1.74317	6.18373	5.26731
2	1.91712	5.79024	4.95722
2	1.24382	6.07409	5.12631
3	7.33729	4.62651	5.38665
1	-0.29369	1.46316	1.7086
2	-0.440526	1.76564	1.54256
2	-0.146854	1.16068	1.87464
2	0.0089257	1.48934	1.48868
2	-0.596306	1.43697	1.92852
3	-0.289011	7.67024	1.64225
1	1.04468	5.57038	5.28559
2	1.17069	5.49622	4.94027
2	0.918672	5.64453	5.63092
2	1.07328	5.93796	5.2171
2	1.01608	5.2028	5.35409
3	9.32748	2.84625	4.07512
1	2.67749	1.74893	2.1314
2	2.69957	2.11787	2.19476
2	2.65541	1.37998	2.06804
2	2.58873	1.69242	2.49134
2	2.76625	1.80543	1.77147
3	2.69473	6.69195	5.49161
1	4.63549	1.25516	2.99984
2	4.63626	1.62642	3.05265
2	4.63473	0.883899	2.94702
2	4.63405	1.30798	2.62858
2	4.63693	1.20235	3.3711
3	6.51432	6.90376	8.2876
1	5.44787	5.81599	4.7181
2	5.38722	5.96419	5.05719
2	5.50852	5.66778	4.37901
2	5.13931	5.60604	4.75467
2	5.75643	6.02593	4.68152
3	7.34539	5.96947	5.19338
1	4.46422	7.55837	1.10365
2	4.53647	7.72558	1.43144
2	4.39197	7.39117	0.775858
2	4.18087	7.79678	1.04449
2	4.74757	7.31996	1.1628
3	-0.0883498	8.50384	0.0606862
1	8.85889	3.39251	5.41459
2	8.97331	3.38018	5.77149
2	8.74447	3.40483	5.05768
2	9.21553	3.37692	5.29971
2	8.50226	3.40809	5.52946
3	1.57965	8.23834	5.10117
1	0.331585	2.22275	3.55014
2	0.363675	2.30941	3.18671
2	0.299495	2.13609	3.91358
2	0.649156	2.02425	3.53085
2	0.0140143	2.42125	3.56943
3	1.1178	0.264885	9.39852
1	1.07174	7.98831	5.2333
2	1.37138	8.19345	5.13971
2	0.772094	7.78317	5.32689
2	0.885896	8.12485	4.93758
2	1.25757	7.85177	5.52901
3	-0.406364	9.14139	5.51579
1	1.66874	8.23848	5.66771
2	1.63475	8.24226	5.29427
2	1.70273	8.23471	6.04115
2	1.86474	8.55785	5.6531
2	1.47275	7.91911	5.68232
3	2.14413	-0.195521	3.84207
1	1.5559	7.59715	2.82578
2	1.73676	7.68005	2.50791
2	1.37505	7.51424	3.14365
2	1.70451	7.90011	2.98935
2	1.4073	7.29419	2.6622
3	4.31029	8.41182	6.56083
1	1.81953	2.35855	1.66604
2	1.59973	2.06202	1.59979
2	2.03932	2.65507	1.73228
2	2.00746	2.29011	1.34883
2	1.63159	2.42699	1.98324
3	2.68581	2.31638	2.20825
1	4.78572	0.130642	2.97009
2	4.86163	-0.236029	2.99044
2	4.7098	0.497313	2.94975
2	4.49437	0.0578579	2.7455
2	5.07707	0.203426	3.19469
3	3.82435	6.82226	5.70895
1	6.58279	8.52355	7.19479
2	6.54287	8.41579	7.55174
2	6.62271	8.6313	6.83783
2	6.35011	8.81127	7.25562
2	6.81547	8.23583	7.13395
3	5.8983	6.16478	4.63232
1	8.86639	8.96197	5.34982
2	8.73639	8.79012	5.65673
2	8.9964	9.13381	5.04291
2	8.63092	8.76142	5.13779
2	9.10187	9.16251	5.56186
3	0.951152	8.81079	4.31695
1	1.06104	6.90371	6.19678
2	1.1823	7.14274	5.9345
2	0.939786	6.66469	6.45906
2	1.22441	7.11216	6.46227
2	0.897674	6.69527	5.93129
3	5.56464	4.75919	4.132
1	1.25504	8.51081	4.70246
2	0.94643	8.31754	4.79206
2	1.56366	8.70408	4.61286
2	1.0607	8.70165	4.44472
2	1.44939	8.31996	4.96021
3	3.33282	9.23632	2.22732
1	3.8387	7.25503	5.33748
2	3.46394	7.26648	5.34489
2	4.21345	7.24359	5.33006
2	3.84266	7.54141	5.09541
2	3.83474	6.96865	5.57954
3	2.09113	4.33865	7.84928
1	3.94386	3.29089	-0.142865
2	4.3084	3.20326	-0.135591
2	3.57931	3.37853	-0.150139
2	3.86784	2.96126	-0.304695
2	4.01987	3.62053	0.0189653
3	2.10572	2.33546	2.80159
1	1.08515	2.88727	2.21914
2	1.4523	2.8293	2.26874
2	0.717991	2.94525	2.16954
2	1.15975	3.2112	2.04555
2	1.01054	2.56335	2.39273
3	-0.365038	7.41589	3.14658
1	4.96075	7.33729	4.56226
2	5.33232	7.2895	4.5788
2	4.58918	7.38509	4.54571
2	4.9973	7.50627	4.22949
2	4.9242	7.16831	4.89502
3	3.99879	8.80621	3.79689
1	6.93516	5.65985	5.47875
2	7.17898	5.83771	5.25617
2	6.69134	5.48199	5.70134
2	7.21725	5.468	5.63446
2	6.65307	5.8517	5.32305
3	5.72977	6.68978	4.01894
1	6.25903	6.72568	0.00816166
2	6.30782	6.82966	0.365139
2	6.21025	6.6217	-0.348816
2	5.9016	6.83794	0.0243101
2	6.61647	6.61341	-0.00798683
3	1.63679	7.10847	5.36306
1	0.231902	6.50485	5.91699
2	0.312241	6.43063	6.27568
2	0.151562	6.57907	5.55829
2	-0.13403	6.47228	5.99221
2	0.597833	6.53742	5.84177
3	9.73391	1.24234	3.38413
1	0.558482	8.76666	4.73723
2	0.425215	9.11047	4.66899
2	0.691749	8.42284	4.80547
2	0.802794	8.80542	4.45539
2	0.314169	8.7279	5.01907
3	0.187021	1.50445	1.39142
1	1.10025	7.3209	5.41717
2	1.27099	7.60646	5.59018
2	0.929513	7.03534	5.24417
2	1.42441	7.13259	5.40809
2	0.776092	7.50922	5.42626
3	6.04861	9.43931	3.40093
1	1.78946	8.99161	3.98923
2	2.12382	8.82353	3.96521
2	1.4551	9.15969	4.01324
2	1.75397	8.87056	4.34237
2	1.82494	9.11266	3.63608
3	1.55214	8.54195	8.03407
1	4.86054	7.35145	3.11885
2	4.69227	7.56915	2.86406
2	5.0288	7.13376	3.37364
2	5.14566	7.59428	3.13804
2	4.57542	7.10863	3.09967
3	3.86979	8.11731	5.93918
1	3.94812	0.260006	3.74467
2	3.84937	0.303046	3.38547
2	4.04686	0.216966	4.10386
2	3.94928	0.632379	3.78897
2	3.94695	-0.112366	3.70037
3	5.53497	7.25257	4.55235
1	8.85425	-0.661865	2.17443
2	8.50536	9.61029	2.22499
2	9.20314	-0.53402	2.12388
2	8.91341	9.72301	2.54443
2	8.7951	-0.646743	1.80444
3	4.47134	0.126573	1.89238
1	0.335217	7.15403	5.33039
2	0.0264785	7.33332	5.44511
2	0.643955	6.97474	5.21568
2	0.517658	7.48104	5.31031
2	0.152775	6.82702	5.35048
3	-0.467166	1.83944	4.00479
1	0.547614	6.38229	5.24082
2	0.872882	6.21185	5.16481
2	0.222347	6.55272	5.31682
2	0.384253	6.0484	5.29041
2	0.710976	6.71617	5.19122
3	7.60219	5.78322	6.3024
1	9.40897	0.289691	1.25447
2	9.41917	0.312177	1.62866
2	9.39878	0.267204	0.880286
2	-0.638289	0.415812	1.23728
2	9.05624	0.163569	1.27166
3	7.65148	6.70622	8.20964
1	2.23227	9.24124	2.99791
2	2.47517	9.27212	2.71388
2	1.98937	9.21036	3.28193
2	2.34758	9.57174	3.13245
2	2.11696	8.91075	2.86336
3	-0.403064	7.21613	0.97742
1	0.748484	2.1207	0.437387
2	0.955194	2.03718	0.738917
2	0.541774	2.20422	0.135856
2	0.457826	1.93566	0.585392
2	1.03914	2.30573	0.289381
3	3.24253	8.94733	6.40673
1	3.51173	-0.0880966	3.35272
2	3.79632	-0.236785	3.54643
2	3.22714	0.0605914	3.15901
2	3.29804	-0.383706	3.43977